   0              1: 
   0              2: 
   1              3: (int) 0 = couple, 1 = seperate
   0.1000E+06     4: pseudo-timestep tau
   0.1000E+06     5: Max. of dtNT, avoid NaN
   0.1000E-11     6: Min. of tol,  avoid NaN
   0.0000E+00     7: f norm from previous step
   0.1000E+01     8: relaxation parameter \alpha \in (0,1]
  20              9: (int) iteration for Newton method
   0.1000E-04     10: perturbation parameter for Jacobi-free
   0.1000E-04     11: tolerance for Newton method
   0.0000E+00     12: 
   0.1000E-09     13: tolerance for GMRES
   0.0000E+00     14: 
   0.0000E+00     15: 
   0.0000E+00     16: 
   0.0000E+00     17: 
   0.0000E+00     18: 
   0.0000E+00     19: 
   0.0000E+00     20: 
