# vtk DataFile Version 2.0
Unstructure Grid for TRI/TET
ASCII
DATASET UNSTRUCTURED_GRID
POINTS      183 float
  1.  0.  0.
  0.95105654  0.309017003  0.
  0.809017003  0.587785244  0.
  0.587785244  0.809017003  0.
  0.309017003  0.95105654  0.
  6.12303177E-17  1.  0.
 -0.309017003  0.95105654  0.
 -0.587785244  0.809017003  0.
 -0.809017003  0.587785244  0.
 -0.95105654  0.309017003  0.
 -1.  1.22460635E-16  0.
 -0.95105654 -0.309017003  0.
 -0.809017003 -0.587785244  0.
 -0.587785244 -0.809017003  0.
 -0.309017003 -0.95105654  0.
 -1.83690953E-16 -1.  0.
  0.309017003 -0.95105654  0.
  0.587785244 -0.809017003  0.
  0.809017003 -0.587785244  0.
  0.95105654 -0.309017003  0.
  1.  0.  1.
  0.95105654  0.309017003  1.
  0.809017003  0.587785244  1.
  0.587785244  0.809017003  1.
  0.309017003  0.95105654  1.
  6.12303177E-17  1.  1.
 -0.309017003  0.95105654  1.
 -0.587785244  0.809017003  1.
 -0.809017003  0.587785244  1.
 -0.95105654  0.309017003  1.
 -1.  1.22460635E-16  1.
 -0.95105654 -0.309017003  1.
 -0.809017003 -0.587785244  1.
 -0.587785244 -0.809017003  1.
 -0.309017003 -0.95105654  1.
 -1.83690953E-16 -1.  1.
  0.309017003 -0.95105654  1.
  0.587785244 -0.809017003  1.
  0.809017003 -0.587785244  1.
  0.95105654 -0.309017003  1.
 -0.000202492025 -0.000278706342  0.
  1.  0.  0.499667197
  0.95105654  0.309017003  0.500261188
  0.587785244  0.809017003  0.500353515
  0.809017003  0.587785244  0.500102401
  0.309017003  0.95105654  0.500038207
  6.12303177E-17  1.  0.50022012
 -0.309017003  0.95105654  0.500209391
 -0.587785244  0.809017003  0.500019312
 -0.95105654  0.309017003  0.500144601
 -0.809017003  0.587785244  0.500164986
 -0.95105654 -0.309017003  0.50027132
 -1.  1.22460635E-16  0.500167191
 -0.587785244 -0.809017003  0.500472009
 -0.809017003 -0.587785244  0.500198424
 -0.309017003 -0.95105654  0.500084221
 -1.83690953E-16 -1.  0.500373602
  0.309017003 -0.95105654  0.500302911
  0.587785244 -0.809017003  0.500275314
  0.95105654 -0.309017003  0.500168085
  0.809017003 -0.587785244  0.500330985
 -0.000477869413 -0.000657730794  1.
 -0.172322631  0.338202238  0.500081003
  0.338261187 -0.172352806  0.500028074
  0.357669443  0.357669443  1.
 -0.230011627 -0.451423228  1.
 -0.229903951 -0.4512119  0.
  0.35783717  0.35783717  0.
 -0.309017003  0.95105654  0.749915779
 -0.587785244  0.809017003  0.75003773
 -0.229738772  0.45088771  1.
 -0.309017003  0.95105654  0.249989703
 -0.587785244  0.809017003  0.250155151
 -0.229788363  0.450985044  0.
 -0.500258446 -0.0299881138  1.
 -0.500109434 -0.0296010002  0.
  0.95105654 -0.309017003  0.750087976
  0.809017003 -0.587785244  0.749952316
  0.450998157 -0.229795039  1.
  0.809017003 -0.587785244  0.249921396
  0.95105654 -0.309017003  0.250301152
  0.451031864 -0.229812205  0.
  0.587785244  0.809017003  0.750215828
  0.809017003  0.587785244  0.749938607
  0.545990586  0.545990586  1.
  0.178578988  0.178522661  0.665564299
  0.100624256  0.635282099  1.
 -0.587785244 -0.809017003  0.750207007
 -0.309017003 -0.95105654  0.750123501
 -0.350754112 -0.688393712  1.
  0.178910792 -0.550839663  1.
 -0.076917395 -0.485614449  0.504101038
 -0.309017003 -0.95105654  0.250261188
 -0.587785244 -0.809017003  0.250039786
 -0.350694567 -0.688276887  0.
  0.809017003  0.587785244  0.249905303
  0.587785244  0.809017003  0.25029096
  0.546083272  0.546083272  0.
  0.635287762  0.100623257  0.
 -0.307233483  0.602928877  0.690871716
  0.0488549024  0.308714002  0.
 -0.307177514  0.602938771  0.309223145
 -0.260156661  0.151470318  1.
 -0.95105654 -0.309017003  0.750283241
 -1.  1.22460635E-16  0.750001729
 -0.756418645 -0.119804941  1.
 -0.552838326  0.0875652954  0.558981895
 -0.259925514  0.151618242  0.
 -1.  1.22460635E-16  0.2499571
 -0.95105654 -0.309017003  0.250329763
 -0.756271183 -0.119781591  0.
  0.635282338  0.100627303  1.
  0.602980316 -0.307205021  0.690840244
  0.308781296  0.048842933  0.
  0.178950846 -0.550842464  0.
  0.602919936 -0.307283521  0.309189469
  0.308460683  0.0487061441  1.
  0.0487344228  0.308302045  1.
  0.423754811  0.423849732  0.416616082
  0.0984167829  0.621019304  0.59693867
 -0.532557726 -0.348066121  1.
 -1.83690953E-16 -1.  0.75018698
  0.309017003 -0.95105654  0.749920666
  0.154612154 -0.254426211  1.
 -0.0674593672 -0.0675037354  0.416564494
  0.292124331 -0.573302925  0.620411634
 -1.83690953E-16 -1.  0.250106096
  0.309017003 -0.95105654  0.250303537
 -0.0609830208 -0.715476394  0.
 -0.457580954 -0.426069081  0.347251087
 -0.563290954  0.333519608  1.
 -0.95105654  0.309017003  0.750295699
 -0.516487241  0.418414593  0.500011981
 -0.600670815  0.306057066  0.
  0.621162951  0.0981960595  0.596980631
  0.478628874 -0.529032409  1.
  0.154552579 -0.254351556  0.
  0.478655428 -0.529036641  0.
  1.  0.  0.249609694
  0.700440407  0.345331967  0.
  0.255857348  0.648063064  0.
  0.12460836  0.269171178  0.335657716
  0.309017003  0.95105654  0.749906778
  0.325439006  0.445402145  0.70711273
  6.12303177E-17  1.  0.750326335
 -0.626050293 -0.215853035  0.698766947
 -0.0696184933 -0.682393491  1.
 -0.098256886 -0.234690845  1.
 -0.327427506  0.110224582  0.319790602
 -0.241571262 -0.161298111  0.
  0.0815579966 -0.133879736  0.702503026
 -0.238817349  0.059617158  0.676889837
  0.206967101 -0.432466537  0.320109636
 -0.113704562 -0.718073606  0.304226816
 -0.18131505 -0.31371361  0.27107656
 -0.809017003 -0.587785244  0.2500287
 -0.609661937 -0.127321854  0.304406166
 -0.552422285 -0.379730314  0.
 -0.384204537 -0.521774292  0.684488177
 -0.745942771  0.143532991  1.
 -0.660010099  0.30181694  0.726171255
 -0.809017003  0.587785244  0.249913096
 -0.95105654  0.309017003  0.250136614
  0.95105654  0.309017003  0.750197113
  1.  0.  0.749634504
  0.520040989  0.0113906125  0.295572758
  0.188459083 -0.0807753727  0.24956283
  0.95105654  0.309017003  0.250030696
 -0.046810694  0.696996391  0.
  0.257332653  0.685303688  0.321920395
  0.345323116  0.700445831  1.
 -0.162167892  0.717965245  1.
  0.0226873737 -0.695807993  0.7062729
  0.587785244 -0.809017003  0.250134259
  0.164926797 -0.704135895  0.241083428
 -0.30833286 -0.23043485  0.555170417
 -0.809017003 -0.587785244  0.749954879
 -0.362996042  0.317822725  0.766292036
 -0.653848588  0.224639148  0.296965182
  0.718024075 -0.162120625  1.
  0.671257436  0.26540485  0.351850808
 -0.0101149417  0.541236103  0.324639976
  0.449747324 -0.584517419  0.375204772
CELLS        618      3090
 4 149 156 75 157
 4 129 158 91 175
 4 47 71 181 101
 4 89 120 65 158
 4 69 27 28 130
 4 131 159 104 160
 4 62 101 73 148
 4 33 120 89 158
 4 94 128 66 153
 4 14 94 92 128
 4 86 143 119 170
 4 33 89 87 158
 4 91 153 152 174
 4 118 143 43 169
 4 154 156 129 175
 4 164 20 111 179
 4 176 51 103 145
 4 45 119 46 169
 4 141 165 63 166
 4 55 88 56 172
 4 11 108 109 110
 4 84 134 111 143
 4 85 117 62 151
 4 63 134 115 165
 4 101 119 99 181
 4 155 129 93 157
 4 167 44 95 180
 4 37 122 36 135
 4 145 54 156 129
 4 70 99 86 119
 4 64 117 86 143
 4 48 72 71 101
 4 26 99 68 171
 4 7 71 72 101
 4 152 137 115 182
 4 62 117 85 119
 4 118 165 67 180
 4 165 118 134 180
 4 46 99 47 119
 4 60 76 59 112
 4 30 105 104 159
 4 130 159 29 160
 4 101 161 132 72
 4 85 124 62 141
 4 18 115 81 137
 4 99 144 46 68
 4 72 48 50 132
 4 90 150 125 172
 4 85 141 119 143
 4 84 143 64 170
 4 162 133 161 178
 4 112 125 77 135
 4 148 156 106 178
 4 79 17 173 137
 4 85 150 61 151
 4 29 131 28 160
 4 48 71 47 101
 4 27 99 70 130
 4 88 53 87 158
 4 136 154 152 166
 4 86 142 144 24
 4 6 101 73 168
 4 104 159 106 160
 4 16 126 127 174
 4 22 83 163 84
 4 74 145 105 159
 4 69 99 27 130
 4 41 112 59 164
 4 100 113 67 141
 4 41 42 167 180
 4 69 26 27 99
 4 124 154 91 175
 4 40 113 100 141
 4 103 105 31 145
 4 19 98 81 115
 4 152 154 124 166
 4 80 19 79 115
 4 85 119 117 143
 4 20 76 39 179
 4 47 99 48 101
 4 116 123 61 150
 4 11 10 108 110
 4 51 104 103 145
 4 106 156 148 175
 4 7 73 6 101
 4 48 47 69 99
 4 15 14 126 128
 4 86 24 144 25
 4 47 119 101 181
 4 96 95 44 118
 4 36 122 121 172
 4 62 148 124 151
 4 48 101 99 132
 4 122 37 58 125
 4 99 101 62 132
 4 106 160 132 178
 4 132 148 106 178
 4 86 117 70 119
 4 105 120 31 145
 4 44 43 96 118
 4 83 42 163 134
 4 74 159 130 160
 4 99 101 47 119
 4 40 141 124 166
 4 53 54 176 158
 4 71 7 6 101
 4 144 99 46 119
 4 163 134 84 83
 4 103 104 30 105
 4 90 123 78 125
 4 109 156 155 157
 4 145 151 74 175
 4 71 47 181 46
 4 106 151 145 175
 4 99 144 68 171
 4 83 134 84 143
 4 143 85 111 64
 4 55 92 93 153
 4 54 129 93 155
 4 67 113 98 165
 4 104 105 103 145
 4 40 148 107 149
 4 50 49 162 178
 4 98 167 139 180
 4 84 111 64 143
 4 57 172 125 174
 4 109 155 11 157
 4 119 141 62 181
 4 84 21 163 22
 4 40 100 148 141
 4 62 119 85 141
 4 63 125 123 150
 4 93 13 155 157
 4 86 144 142 119
 4 68 144 26 171
 4 106 159 74 160
 4 144 119 86 171
 4 82 83 22 84
 4 40 136 113 166
 4 122 125 90 135
 4 49 160 106 178
 4 34 88 87 89
 4 93 129 53 153
 4 110 156 109 157
 4 126 128 92 153
 4 56 121 122 172
 4 74 151 147 175
 4 29 159 131 160
 4 134 111 112 179
 4 64 143 86 170
 4 138 19 80 98
 4 38 39 76 112
 4 96 4 3 140
 4 23 82 22 84
 4 70 117 102 177
 4 78 116 63 150
 4 62 124 85 151
 4 87 120 33 158
 4 19 81 18 115
 4 40 149 136 154
 4 147 150 91 175
 4 124 148 40 149
 4 128 153 126 174
 4 134 42 41 180
 4 112 164 41 134
 4 99 119 144 171
 4 162 9 161 133
 4 118 141 85 143
 4 123 147 61 150
 4 58 125 112 182
 4 67 141 118 169
 4 3 95 96 97
 4 69 130 28 160
 4 36 122 90 135
 4 76 77 38 112
 4 122 58 57 125
 4 56 172 57 174
 4 54 53 93 129
 4 93 14 13 94
 4 46 68 47 99
 4 69 68 26 99
 4 81 165 113 166
 4 42 41 164 134
 4 31 120 103 145
 4 124 150 85 151
 4 40 154 136 166
 4 124 150 91 152
 4 69 47 68 99
 4 102 147 74 151
 4 129 145 54 158
 4 55 56 126 153
 4 74 147 120 175
 4 34 87 33 89
 4 152 174 137 182
 4 115 138 80 98
 4 90 146 65 172
 4 90 125 122 172
 4 77 60 58 112
 4 76 60 77 112
 4 85 134 118 143
 4 61 116 85 117
 4 63 152 115 182
 4 62 99 70 119
 4 144 46 142 119
 4 70 117 62 119
 4 94 129 66 157
 4 115 138 41 80
 4 31 103 30 105
 4 14 93 92 94
 4 121 56 88 172
 4 78 123 63 125
 4 126 92 55 153
 4 152 153 91 154
 4 63 112 78 125
 4 66 154 149 157
 4 41 165 134 180
 4 44 118 95 180
 4 18 79 19 115
 4 80 98 19 115
 4 114 128 16 174
 4 105 145 104 159
 4 80 79 60 115
 4 3 2 95 97
 4 2 1 95 139
 4 66 129 94 153
 4 50 72 132 161
 4 129 156 149 157
 4 153 172 56 174
 4 91 154 129 175
 4 103 176 120 32
 4 24 82 23 170
 4 104 49 131 160
 4 28 50 69 160
 4 78 112 111 179
 4 114 152 136 154
 4 90 125 78 135
 4 81 152 115 166
 4 18 17 79 137
 4 95 1 167 139
 4 85 116 64 117
 4 114 153 152 154
 4 124 141 85 166
 4 123 125 90 150
 4 112 76 164 179
 4 63 152 124 166
 4 75 148 133 178
 4 69 50 48 132
 4 129 156 145 175
 4 165 138 98 180
 4 152 153 114 174
 4 63 150 124 152
 4 164 59 76 112
 4 44 134 143 118
 4 99 119 62 181
 4 28 130 29 160
 4 43 143 119 169
 4 140 141 67 169
 4 109 110 108 156
 4 119 141 118 143
 4 88 146 121 172
 4 37 125 122 135
 4 91 150 125 152
 4 96 97 95 118
 4 53 129 54 158
 4 161 7 72 133
 4 99 130 69 160
 4 106 148 62 151
 4 142 46 45 119
 4 76 112 39 179
 4 82 84 23 170
 4 63 123 78 150
 4 93 129 94 157
 4 114 153 128 174
 4 84 163 21 111
 4 149 154 129 157
 4 38 112 77 135
 4 25 26 144 171
 4 148 156 154 175
 4 167 95 139 180
 4 39 112 38 179
 4 111 85 116 64
 4 111 164 134 163
 4 48 99 69 132
 4 85 116 63 134
 4 60 115 79 182
 4 97 139 95 180
 4 81 137 115 152
 4 85 111 116 134
 4 155 156 129 157
 4 14 92 126 128
 4 19 98 138 0
 4 75 156 110 157
 4 37 77 58 125
 4 53 55 93 153
 4 77 112 58 125
 4 16 137 114 174
 4 124 141 40 148
 4 107 148 75 149
 4 44 134 118 180
 4 9 8 161 133
 4 133 8 161 7
 4 72 101 48 132
 4 73 101 7 133
 4 101 161 72 133
 4 98 138 167 180
 4 100 168 73 181
 4 65 146 89 158
 4 145 156 106 175
 4 80 60 59 115
 4 60 112 59 115
 4 41 80 59 115
 4 77 125 37 135
 4 138 165 41 180
 4 95 97 2 139
 4 118 169 141 181
 4 0 1 98 138
 4 113 165 141 166
 4 106 145 74 159
 4 91 150 124 175
 4 120 147 65 175
 4 119 169 118 181
 4 3 97 96 140
 4 85 141 63 166
 4 74 120 105 145
 4 120 158 145 175
 4 38 77 37 135
 4 41 167 138 180
 4 32 103 31 120
 4 148 149 124 154
 4 85 117 64 143
 4 79 115 18 137
 4 134 44 143 83
 4 124 154 40 166
 4 27 99 26 171
 4 98 167 1 139
 4 94 129 93 153
 4 66 128 114 153
 4 83 84 82 143
 4 113 136 81 166
 4 78 125 112 135
 4 92 128 94 153
 4 33 87 32 120
 4 54 155 156 129
 4 85 116 61 150
 4 101 132 161 178
 4 7 101 72 133
 4 138 98 115 165
 4 114 137 81 152
 4 12 155 13 157
 4 107 133 75 148
 4 78 123 116 150
 4 62 141 124 148
 4 91 152 125 174
 4 89 34 88 146
 4 88 34 121 146
 4 34 35 121 146
 4 71 101 6 168
 4 54 156 109 51
 4 85 143 111 134
 4 92 94 93 153
 4 16 173 17 174
 4 73 141 62 148
 4 132 50 161 178
 4 101 161 133 178
 4 126 56 127 174
 4 173 16 127 174
 4 70 99 62 177
 4 129 153 91 158
 4 12 11 155 157
 4 66 153 114 154
 4 101 148 132 178
 4 55 53 88 158
 4 49 52 162 178
 4 126 153 56 174
 4 50 132 69 160
 4 145 158 129 175
 4 124 152 91 154
 4 91 153 129 154
 4 71 5 46 168
 4 111 164 163 20
 4 164 111 134 179
 4 164 42 134 163
 4 42 83 44 134
 4 100 40 148 107
 4 112 115 63 134
 4 176 54 51 145
 4 129 154 66 157
 4 99 160 132 177
 4 115 152 63 166
 4 62 141 73 181
 4 5 45 46 169
 4 115 165 81 166
 4 63 165 115 166
 4 78 112 63 134
 4 63 116 78 134
 4 111 112 78 134
 4 78 116 111 134
 4 59 112 41 134
 4 59 115 112 134
 4 41 115 59 134
 4 142 24 86 170
 4 57 56 122 172
 4 86 119 142 170
 4 86 119 99 171
 4 119 143 118 169
 4 58 112 60 182
 4 119 143 142 170
 4 125 150 91 172
 4 142 82 24 170
 4 142 143 82 170
 4 137 79 115 182
 4 136 152 81 166
 4 113 141 40 166
 4 63 124 85 166
 4 82 143 84 170
 4 67 140 100 141
 4 43 119 45 169
 4 45 96 43 169
 4 96 118 43 169
 4 125 152 63 182
 4 117 119 86 143
 4 82 43 83 143
 4 142 43 82 143
 4 86 99 70 171
 4 86 25 144 171
 4 70 99 27 171
 4 43 44 83 143
 4 43 118 44 143
 4 142 45 43 143
 4 142 119 45 143
 4 45 119 43 143
 4 102 130 70 177
 4 106 132 62 148
 4 131 50 28 160
 4 69 132 99 160
 4 104 131 30 159
 4 73 101 62 181
 4 51 52 104 145
 4 11 110 109 157
 4 52 106 104 145
 4 94 13 93 157
 4 62 132 101 148
 4 63 116 85 150
 4 85 124 63 150
 4 73 107 100 148
 4 100 141 73 148
 4 73 133 107 148
 4 101 133 73 148
 4 136 149 66 154
 4 137 152 114 174
 4 125 150 63 152
 4 129 153 66 154
 4 148 151 106 175
 4 114 136 66 154
 4 29 30 131 159
 4 87 89 88 158
 4 150 151 124 175
 4 108 162 52 178
 4 81 136 114 152
 4 5 71 6 168
 4 95 118 97 180
 4 42 134 44 180
 4 106 52 49 178
 4 132 160 49 178
 4 108 52 109 156
 4 49 132 50 160
 4 74 145 106 151
 4 62 117 70 177
 4 81 115 98 165
 4 61 147 102 151
 4 61 150 147 151
 4 102 117 61 151
 4 61 117 85 151
 4 131 49 50 160
 4 104 145 106 159
 4 98 113 81 165
 4 120 145 74 175
 4 56 57 127 174
 4 147 151 150 175
 4 124 149 40 154
 4 62 151 117 177
 4 62 132 106 177
 4 52 51 109 156
 4 78 135 112 179
 4 112 135 38 179
 4 70 130 99 177
 4 76 20 164 179
 4 42 44 167 180
 4 106 145 52 156
 4 52 145 51 156
 4 111 163 21 20
 4 98 139 67 180
 4 112 164 134 179
 4 102 151 74 177
 4 74 130 102 177
 4 75 149 148 156
 4 149 154 148 156
 4 117 151 102 177
 4 106 160 74 177
 4 74 160 130 177
 4 129 154 149 156
 4 91 153 55 158
 4 53 153 129 158
 4 55 153 53 158
 4 53 176 87 158
 4 54 145 176 158
 4 120 176 87 32
 4 120 176 145 158
 4 130 160 99 177
 4 176 103 120 145
 4 106 151 62 177
 4 133 148 101 178
 4 74 151 106 177
 4 176 120 87 158
 4 99 132 62 177
 4 132 160 106 177
 4 104 52 49 160
 4 104 106 52 160
 4 52 106 49 160
 4 132 49 50 178
 4 161 50 162 178
 4 118 141 67 165
 4 67 141 113 165
 4 46 169 119 181
 4 118 141 119 181
 4 46 119 47 181
 4 62 101 99 181
 4 85 134 63 165
 4 63 141 85 165
 4 118 134 85 165
 4 85 141 118 165
 4 73 168 101 181
 4 138 115 41 165
 4 41 115 134 165
 4 73 141 100 181
 4 167 98 1 138
 4 168 169 46 181
 4 97 118 96 169
 4 96 140 97 169
 4 45 4 96 169
 4 4 140 96 169
 4 58 60 173 182
 4 79 173 60 182
 4 173 79 137 182
 4 63 115 112 182
 4 112 115 60 182
 4 67 118 97 169
 4 97 140 67 169
 4 5 168 140 169
 4 46 168 5 169
 4 125 174 152 182
 4 137 174 173 182
 4 45 5 4 169
 4 5 140 4 169
 4 122 125 57 172
 4 148 154 124 175
 4 124 151 148 175
 4 56 153 55 172
 4 55 153 91 172
 4 90 122 36 172
 4 36 146 90 172
 4 36 121 35 172
 4 121 146 35 172
 4 35 146 36 172
 4 91 150 147 172
 4 91 147 65 172
 4 65 147 90 172
 4 146 158 65 172
 4 65 158 91 172
 4 89 146 88 172
 4 89 158 146 172
 4 88 158 89 172
 4 91 158 55 172
 4 55 158 88 172
 4 90 147 123 172
 4 147 150 123 172
 4 123 150 90 172
 4 173 137 17 174
 4 17 137 16 174
 4 54 145 156 51
 4 155 54 156 109
 4 91 172 153 174
 4 125 172 91 174
 4 126 16 15 174
 4 16 128 15 174
 4 15 128 126 174
 4 65 158 120 175
 4 65 147 91 175
 4 91 158 65 175
 4 75 156 148 178
 4 106 156 52 178
 4 52 156 108 178
 4 108 156 110 178
 4 75 133 110 178
 4 110 156 75 178
 4 162 108 9 178
 4 162 9 133 178
 4 133 9 110 178
 4 108 10 9 178
 4 108 110 10 178
 4 10 110 9 178
 4 67 165 98 180
 4 97 118 67 180
 4 67 139 97 180
 4 140 168 100 181
 4 140 169 168 181
 4 100 141 140 181
 4 141 169 140 181
 4 134 163 84 111
 4 101 168 71 181
 4 71 168 46 181
 4 112 125 63 182
 4 173 127 58 182
 4 173 174 127 182
 4 58 57 125 182
 4 57 174 125 182
 4 127 57 58 182
 4 127 174 57 182
CELL_TYPES        618
 10 10 10 10 10 10 10 10 10 10 10 10 10 10 10 10 10 10 10 10 10 10 10 10 10 10 10 10 10 10 10 10 10 10 10 10 10 10 10 10 10 10 10 10 10 10 10 10 10 10 10 10 10 10 10 10 10 10 10 10 10 10 10 10 10 10 10 10 10 10 10 10 10 10 10 10 10 10 10 10 10 10 10 10 10 10 10 10 10 10 10 10 10 10 10 10 10 10 10 10 10 10 10 10 10 10 10 10 10 10 10 10 10 10 10 10 10 10 10 10 10 10 10 10 10 10 10 10 10 10 10 10 10 10 10 10 10 10 10 10 10 10 10 10 10 10 10 10 10 10 10 10 10 10 10 10 10 10 10 10 10 10 10 10 10 10 10 10 10 10 10 10 10 10 10 10 10 10 10 10 10 10 10 10 10 10 10 10 10 10 10 10 10 10 10 10 10 10 10 10 10 10 10 10 10 10 10 10 10 10 10 10 10 10 10 10 10 10 10 10 10 10 10 10 10 10 10 10 10 10 10 10 10 10 10 10 10 10 10 10 10 10 10 10 10 10 10 10 10 10 10 10 10 10 10 10 10 10 10 10 10 10 10 10 10 10 10 10 10 10 10 10 10 10 10 10 10 10 10 10 10 10 10 10 10 10 10 10 10 10 10 10 10 10 10 10 10 10 10 10 10 10 10 10 10 10 10 10 10 10 10 10 10 10 10 10 10 10 10 10 10 10 10 10 10 10 10 10 10 10 10 10 10 10 10 10 10 10 10 10 10 10 10 10 10 10 10 10 10 10 10 10 10 10 10 10 10 10 10 10 10 10 10 10 10 10 10 10 10 10 10 10 10 10 10 10 10 10 10 10 10 10 10 10 10 10 10 10 10 10 10 10 10 10 10 10 10 10 10 10 10 10 10 10 10 10 10 10 10 10 10 10 10 10 10 10 10 10 10 10 10 10 10 10 10 10 10 10 10 10 10 10 10 10 10 10 10 10 10 10 10 10 10 10 10 10 10 10 10 10 10 10 10 10 10 10 10 10 10 10 10 10 10 10 10 10 10 10 10 10 10 10 10 10 10 10 10 10 10 10 10 10 10 10 10 10 10 10 10 10 10 10 10 10 10 10 10 10 10 10 10 10 10 10 10 10 10 10 10 10 10 10 10 10 10 10 10 10 10 10 10 10 10 10 10 10 10 10 10 10 10 10 10 10 10 10 10 10 10 10 10 10 10 10 10 10 10 10 10 10 10 10 10 10 10 10 10 10 10 10 10 10 10 10 10 10 10 10 10 10 10 10 10 10 10 10 10 10 10 10 10 10 10 10 10 10 10 10 10 10 10 10 10 10 10 10 10 10 10 10 10 10 10 10 10 10 10 10 10 10 10 10 10 10 10 10 10 10
POINT_DATA        183
VECTORS E float
  1.  2.  3.
  1.  2.  3.
  1.  2.  3.
  1.  2.  3.
  1.  2.  3.
  1.  2.  3.
  1.  2.  3.
  1.  2.  3.
  1.  2.  3.
  1.  2.  3.
  1.  2.  3.
  1.  2.  3.
  1.  2.  3.
  1.  2.  3.
  1.  2.  3.
  1.  2.  3.
  1.  2.  3.
  1.  2.  3.
  1.  2.  3.
  1.  2.  3.
  1.  2.  3.
  1.  2.  3.
  1.  2.  3.
  1.  2.  3.
  1.  2.  3.
  1.  2.  3.
  1.  2.  3.
  1.  2.  3.
  1.  2.  3.
  1.  2.  3.
  1.  2.  3.
  1.  2.  3.
  1.  2.  3.
  1.  2.  3.
  1.  2.  3.
  1.  2.  3.
  1.  2.  3.
  1.  2.  3.
  1.  2.  3.
  1.  2.  3.
  1.  2.  3.
  1.  2.  3.
  1.  2.  3.
  1.  2.  3.
  1.  2.  3.
  1.  2.  3.
  1.  2.  3.
  1.  2.  3.
  1.  2.  3.
  1.  2.  3.
  1.  2.  3.
  1.  2.  3.
  1.  2.  3.
  1.  2.  3.
  1.  2.  3.
  1.  2.  3.
  1.  2.  3.
  1.  2.  3.
  1.  2.  3.
  1.  2.  3.
  1.  2.  3.
  1.  2.  3.
  1.  2.  3.
  1.  2.  3.
  1.  2.  3.
  1.  2.  3.
  1.  2.  3.
  1.  2.  3.
  1.  2.  3.
  1.  2.  3.
  1.  2.  3.
  1.  2.  3.
  1.  2.  3.
  1.  2.  3.
  1.  2.  3.
  1.  2.  3.
  1.  2.  3.
  1.  2.  3.
  1.  2.  3.
  1.  2.  3.
  1.  2.  3.
  1.  2.  3.
  1.  2.  3.
  1.  2.  3.
  1.  2.  3.
  1.  2.  3.
  1.  2.  3.
  1.  2.  3.
  1.  2.  3.
  1.  2.  3.
  1.  2.  3.
  1.  2.  3.
  1.  2.  3.
  1.  2.  3.
  1.  2.  3.
  1.  2.  3.
  1.  2.  3.
  1.  2.  3.
  1.  2.  3.
  1.  2.  3.
  1.  2.  3.
  1.  2.  3.
  1.  2.  3.
  1.  2.  3.
  1.  2.  3.
  1.  2.  3.
  1.  2.  3.
  1.  2.  3.
  1.  2.  3.
  1.  2.  3.
  1.  2.  3.
  1.  2.  3.
  1.  2.  3.
  1.  2.  3.
  1.  2.  3.
  1.  2.  3.
  1.  2.  3.
  1.  2.  3.
  1.  2.  3.
  1.  2.  3.
  1.  2.  3.
  1.  2.  3.
  1.  2.  3.
  1.  2.  3.
  1.  2.  3.
  1.  2.  3.
  1.  2.  3.
  1.  2.  3.
  1.  2.  3.
  1.  2.  3.
  1.  2.  3.
  1.  2.  3.
  1.  2.  3.
  1.  2.  3.
  1.  2.  3.
  1.  2.  3.
  1.  2.  3.
  1.  2.  3.
  1.  2.  3.
  1.  2.  3.
  1.  2.  3.
  1.  2.  3.
  1.  2.  3.
  1.  2.  3.
  1.  2.  3.
  1.  2.  3.
  1.  2.  3.
  1.  2.  3.
  1.  2.  3.
  1.  2.  3.
  1.  2.  3.
  1.  2.  3.
  1.  2.  3.
  1.  2.  3.
  1.  2.  3.
  1.  2.  3.
  1.  2.  3.
  1.  2.  3.
  1.  2.  3.
  1.  2.  3.
  1.  2.  3.
  1.  2.  3.
  1.  2.  3.
  1.  2.  3.
  1.  2.  3.
  1.  2.  3.
  1.  2.  3.
  1.  2.  3.
  1.  2.  3.
  1.  2.  3.
  1.  2.  3.
  1.  2.  3.
  1.  2.  3.
  1.  2.  3.
  1.  2.  3.
  1.  2.  3.
  1.  2.  3.
  1.  2.  3.
  1.  2.  3.
  1.  2.  3.
  1.  2.  3.
  1.  2.  3.
  1.  2.  3.
